+ 0.167046 /NodeList/1/DeviceList/0/$ns3::WimaxNetDevice/InitialRangingConnection/TxQueue/Enqueue ns3::ManagementMessageType ( management message type = 4) ns3::RngReq ( requested dl burst profile = 4, mac address = 00:00:00:00:00:02, ranging anomalies = 0)
- 0.167046 /NodeList/1/DeviceList/0/$ns3::WimaxNetDevice/InitialRangingConnection/TxQueue/Dequeue ns3::MacHeaderType ( header type = 0) ns3::GenericMacHeader ( ec (encryption control) = 0, type = 0, ci (crc indicator) = 0, eks (encryption key sequence) = 0, len (length) = 16, cid = 0, hcs (header check sequence) = 162) ns3::ManagementMessageType ( management message type = 4) ns3::RngReq ( requested dl burst profile = 4, mac address = 00:00:00:00:00:02, ranging anomalies = 0)
+ 0.409705 /NodeList/1/DeviceList/0/$ns3::WimaxNetDevice/InitialRangingConnection/TxQueue/Enqueue ns3::ManagementMessageType ( management message type = 4) ns3::RngReq ( requested dl burst profile = 4, mac address = 00:00:00:00:00:02, ranging anomalies = 0)
- 0.409705 /NodeList/1/DeviceList/0/$ns3::WimaxNetDevice/InitialRangingConnection/TxQueue/Dequeue ns3::MacHeaderType ( header type = 0) ns3::GenericMacHeader ( ec (encryption control) = 0, type = 0, ci (crc indicator) = 0, eks (encryption key sequence) = 0, len (length) = 16, cid = 0, hcs (header check sequence) = 162) ns3::ManagementMessageType ( management message type = 4) ns3::RngReq ( requested dl burst profile = 4, mac address = 00:00:00:00:00:02, ranging anomalies = 0)
t 6 to: ff:ff:ff:ff:ff:ff /NodeList/1/DeviceList/0/$ns3::WimaxNetDevice/Tx
t 6.5 to: ff:ff:ff:ff:ff:ff /NodeList/1/DeviceList/0/$ns3::WimaxNetDevice/Tx
